/*--------------------------------*- C++ -*----------------------------------*\
| =========                 |                                                 |
| \\      /  F ield         | OpenFOAM: The Open Source CFD Toolbox           |
|  \\    /   O peration     | Version:  2406                                  |
|   \\  /    A nd           | Website:  www.openfoam.com                      |
|    \\/     M anipulation  |                                                 |
\*---------------------------------------------------------------------------*/
FoamFile
{
    version     2.0;
    format      ascii;
    arch        "LSB;label=32;scalar=64";
    class       volVectorField;
    location    "0";
    object      U;
}
// * * * * * * * * * * * * * * * * * * * * * * * * * * * * * * * * * * * * * //

dimensions      [0 1 -1 0 0 0 0];

internalField   nonuniform List<vector> 
24000
(
(0.998286 0.00175057 0)
(0.994856 0.00175199 0)
(0.991422 0.00175489 0)
(0.987981 0.00175923 0)
(0.984531 0.0017649 0)
(0.981067 0.00177206 0)
(0.977588 0.00178082 0)
(0.974091 0.001791 0)
(0.970572 0.0018026 0)
(0.967029 0.00181569 0)
(0.963459 0.00183041 0)
(0.959858 0.00184671 0)
(0.956224 0.00186457 0)
(0.952554 0.00188399 0)
(0.948844 0.00190508 0)
(0.945091 0.0019278 0)
(0.941292 0.00195226 0)
(0.937443 0.00197851 0)
(0.933541 0.0020065 0)
(0.929582 0.00203635 0)
(0.925563 0.00206808 0)
(0.92148 0.00210175 0)
(0.917329 0.00213743 0)
(0.913107 0.00217512 0)
(0.908808 0.00221492 0)
(0.90443 0.00225688 0)
(0.899967 0.00230107 0)
(0.895415 0.00234756 0)
(0.89077 0.00239643 0)
(0.886026 0.00244776 0)
(0.88118 0.00250162 0)
(0.876226 0.0025581 0)
(0.871158 0.00261729 0)
(0.865972 0.00267925 0)
(0.860662 0.0027441 0)
(0.855221 0.00281194 0)
(0.849645 0.00288285 0)
(0.843927 0.00295697 0)
(0.83806 0.00303438 0)
(0.832039 0.00311517 0)
(0.825856 0.00319953 0)
(0.819504 0.00328749 0)
(0.812976 0.00337918 0)
(0.806265 0.0034748 0)
(0.799362 0.00357444 0)
(0.792261 0.00367814 0)
(0.784952 0.00378608 0)
(0.777428 0.00389841 0)
(0.769679 0.00401525 0)
(0.761697 0.00413668 0)
(0.753473 0.00426283 0)
(0.744996 0.00439385 0)
(0.736259 0.00452981 0)
(0.72725 0.00467078 0)
(0.71796 0.00481691 0)
(0.708378 0.0049683 0)
(0.698495 0.00512497 0)
(0.6883 0.00528696 0)
(0.677783 0.00545435 0)
(0.666932 0.00562714 0)
(0.655738 0.00580532 0)
(0.644189 0.00598886 0)
(0.632276 0.0061777 0)
(0.619988 0.00637175 0)
(0.607315 0.00657089 0)
(0.594247 0.00677493 0)
(0.580775 0.00698364 0)
(0.56689 0.00719676 0)
(0.552584 0.007414 0)
(0.537848 0.007635 0)
(0.522677 0.00785929 0)
(0.507063 0.00808638 0)
(0.491003 0.00831574 0)
(0.474492 0.00854673 0)
(0.457527 0.00877864 0)
(0.440109 0.0090107 0)
(0.422236 0.00924208 0)
(0.403912 0.00947191 0)
(0.38514 0.00969922 0)
(0.365927 0.00992297 0)
(0.34628 0.0101421 0)
(0.326209 0.0103554 0)
(0.305728 0.0105618 0)
(0.28485 0.0107601 0)
(0.263594 0.010949 0)
(0.241977 0.0111275 0)
(0.220022 0.0112942 0)
(0.197754 0.0114481 0)
(0.175198 0.011588 0)
(0.152382 0.0117129 0)
(0.129338 0.0118219 0)
(0.106096 0.0119141 0)
(0.0826915 0.0119888 0)
(0.0591581 0.0120453 0)
(0.0355321 0.0120833 0)
(0.0118502 0.0121024 0)
(0.998287 0.0052503 0)
(0.994861 0.00525462 0)
(0.99143 0.00526317 0)
(0.987992 0.00527614 0)
(0.984544 0.00529329 0)
(0.981084 0.00531479 0)
(0.977608 0.00534083 0)
(0.974113 0.00537135 0)
(0.970597 0.00540626 0)
(0.967058 0.00544566 0)
(0.963491 0.00548969 0)
(0.959893 0.00553844 0)
(0.956263 0.00559195 0)
(0.952595 0.00565021 0)
(0.948889 0.00571341 0)
(0.945139 0.00578163 0)
(0.941343 0.00585497 0)
(0.937498 0.00593362 0)
(0.9336 0.00601761 0)
(0.929645 0.0061071 0)
(0.92563 0.00620227 0)
(0.921551 0.0063032 0)
(0.917404 0.00641013 0)
(0.913186 0.00652314 0)
(0.908892 0.00664246 0)
(0.904518 0.00676829 0)
(0.900059 0.0069008 0)
(0.895512 0.00704023 0)
(0.890872 0.00718678 0)
(0.886134 0.00734068 0)
(0.881293 0.00750219 0)
(0.876344 0.00767151 0)
(0.871282 0.00784895 0)
(0.866101 0.00803474 0)
(0.860797 0.00822918 0)
(0.855363 0.0084326 0)
(0.849793 0.00864526 0)
(0.844082 0.00886745 0)
(0.838222 0.00909957 0)
(0.832208 0.00934186 0)
(0.826032 0.00959476 0)
(0.819687 0.00985857 0)
(0.813167 0.0101336 0)
(0.806464 0.0104202 0)
(0.79957 0.010719 0)
(0.792477 0.01103 0)
(0.785177 0.0113537 0)
(0.777662 0.0116906 0)
(0.769922 0.0120409 0)
(0.76195 0.0124051 0)
(0.753735 0.0127835 0)
(0.745269 0.0131764 0)
(0.736541 0.0135841 0)
(0.727543 0.014007 0)
(0.718263 0.0144453 0)
(0.708693 0.0148994 0)
(0.698821 0.0153693 0)
(0.688637 0.0158553 0)
(0.67813 0.0163574 0)
(0.66729 0.0168758 0)
(0.656107 0.0174104 0)
(0.644569 0.017961 0)
(0.632667 0.0185277 0)
(0.620389 0.01911 0)
(0.607727 0.0197076 0)
(0.594669 0.0203199 0)
(0.581206 0.0209463 0)
(0.56733 0.021586 0)
(0.553031 0.0222382 0)
(0.538303 0.0229016 0)
(0.523138 0.0235749 0)
(0.507529 0.0242568 0)
(0.491473 0.0249455 0)
(0.474964 0.0256392 0)
(0.458001 0.0263357 0)
(0.440582 0.0270328 0)
(0.422707 0.0277279 0)
(0.404379 0.0284184 0)
(0.385601 0.0291014 0)
(0.366379 0.0297737 0)
(0.346721 0.0304322 0)
(0.326638 0.0310734 0)
(0.306141 0.0316938 0)
(0.285246 0.0322899 0)
(0.263969 0.032858 0)
(0.242329 0.0333946 0)
(0.22035 0.0338959 0)
(0.198054 0.0343587 0)
(0.175468 0.0347796 0)
(0.152621 0.0351554 0)
(0.129543 0.0354832 0)
(0.106267 0.0357606 0)
(0.0828255 0.0359853 0)
(0.0592546 0.0361555 0)
(0.0355903 0.0362697 0)
(0.0118697 0.0363271 0)
(0.99829 0.00874546 0)
(0.994869 0.00875272 0)
(0.991444 0.00876698 0)
(0.988012 0.0087885 0)
(0.98457 0.00881719 0)
(0.981116 0.00885309 0)
(0.977646 0.00889629 0)
(0.974158 0.00894698 0)
(0.970648 0.00900513 0)
(0.967114 0.00907083 0)
(0.963554 0.00914412 0)
(0.959963 0.00922521 0)
(0.956339 0.00931421 0)
(0.952678 0.00941127 0)
(0.948978 0.0095165 0)
(0.945236 0.00963013 0)
(0.941447 0.00975226 0)
(0.937609 0.00988314 0)
(0.933718 0.010023 0)
(0.929771 0.010172 0)
(0.925764 0.0103304 0)
(0.921693 0.0104984 0)
(0.917554 0.0106764 0)
(0.913344 0.0108646 0)
(0.909059 0.0110632 0)
(0.904693 0.0112727 0)
(0.900244 0.0114934 0)
(0.895707 0.0117255 0)
(0.891076 0.0119695 0)
(0.886348 0.0122257 0)
(0.881518 0.0124946 0)
(0.87658 0.0127765 0)
(0.871529 0.0130719 0)
(0.86636 0.0133812 0)
(0.861068 0.0137049 0)
(0.855646 0.0140436 0)
(0.850089 0.0143977 0)
(0.844391 0.0147676 0)
(0.838545 0.0151541 0)
(0.832545 0.0155576 0)
(0.826383 0.0159786 0)
(0.820054 0.0164179 0)
(0.81355 0.0168759 0)
(0.806863 0.0173532 0)
(0.799985 0.0178506 0)
(0.792909 0.0183686 0)
(0.785627 0.0189077 0)
(0.77813 0.0194687 0)
(0.770409 0.0200522 0)
(0.762455 0.0206588 0)
(0.75426 0.021289 0)
(0.745814 0.0219434 0)
(0.737107 0.0226226 0)
(0.728129 0.0233271 0)
(0.718871 0.0240574 0)
(0.709322 0.0248138 0)
(0.699471 0.0255968 0)
(0.689309 0.0264067 0)
(0.678825 0.0272435 0)
(0.668007 0.0281075 0)
(0.656846 0.0289986 0)
(0.64533 0.0299166 0)
(0.633449 0.0308614 0)
(0.621193 0.0318323 0)
(0.60855 0.0328288 0)
(0.595512 0.0338501 0)
(0.582068 0.034895 0)
(0.56821 0.0359624 0)
(0.553927 0.0370505 0)
(0.539213 0.0381577 0)
(0.524061 0.0392817 0)
(0.508463 0.0404202 0)
(0.492415 0.0415702 0)
(0.475911 0.0427287 0)
(0.458951 0.0438921 0)
(0.44153 0.0450568 0)
(0.423651 0.0462186 0)
(0.405315 0.0473728 0)
(0.386524 0.0485147 0)
(0.367286 0.049639 0)
(0.347607 0.0507403 0)
(0.327498 0.0518131 0)
(0.30697 0.0528513 0)
(0.286039 0.0538489 0)
(0.264722 0.0548 0)
(0.243037 0.0556983 0)
(0.221007 0.056538 0)
(0.198656 0.0573131 0)
(0.176011 0.0580182 0)
(0.153101 0.0586478 0)
(0.129956 0.0591972 0)
(0.106609 0.0596621 0)
(0.0830948 0.0600387 0)
(0.0594485 0.0603239 0)
(0.0357074 0.0605154 0)
(0.0119088 0.0606116 0)
(0.998295 0.0122332 0)
(0.994883 0.0122432 0)
(0.991466 0.0122632 0)
(0.988043 0.0122933 0)
(0.98461 0.0123334 0)
(0.981164 0.0123836 0)
(0.977703 0.0124441 0)
(0.974224 0.0125149 0)
(0.970724 0.0125962 0)
(0.9672 0.012688 0)
(0.963648 0.0127904 0)
(0.960067 0.0129038 0)
(0.956453 0.0130281 0)
(0.952802 0.0131638 0)
(0.949112 0.0133109 0)
(0.94538 0.0134697 0)
(0.941602 0.0136404 0)
(0.937775 0.0138233 0)
(0.933895 0.0140188 0)
(0.929959 0.014227 0)
(0.925963 0.0144484 0)
(0.921904 0.0146833 0)
(0.917778 0.014932 0)
(0.913581 0.0151951 0)
(0.909309 0.0154727 0)
(0.904957 0.0157656 0)
(0.900522 0.016074 0)
(0.895998 0.0163984 0)
(0.891383 0.0167394 0)
(0.88667 0.0170976 0)
(0.881855 0.0174733 0)
(0.876933 0.0178674 0)
(0.871899 0.0182803 0)
(0.866748 0.0187126 0)
(0.861474 0.0191652 0)
(0.85607 0.0196385 0)
(0.850533 0.0201335 0)
(0.844854 0.0206506 0)
(0.839029 0.0211909 0)
(0.83305 0.0217549 0)
(0.82691 0.0223435 0)
(0.820604 0.0229576 0)
(0.814123 0.0235979 0)
(0.80746 0.0242653 0)
(0.800607 0.0249607 0)
(0.793557 0.025685 0)
(0.786301 0.0264389 0)
(0.778831 0.0272234 0)
(0.771138 0.0280394 0)
(0.763213 0.0288877 0)
(0.755047 0.0297692 0)
(0.746631 0.0306846 0)
(0.737955 0.0316347 0)
(0.729008 0.0326203 0)
(0.719782 0.0336421 0)
(0.710265 0.0347007 0)
(0.700447 0.0357964 0)
(0.690318 0.0369299 0)
(0.679867 0.0381013 0)
(0.669083 0.039311 0)
(0.657955 0.0405587 0)
(0.646472 0.0418444 0)
(0.634623 0.0431677 0)
(0.622399 0.0445279 0)
(0.609787 0.0459243 0)
(0.596779 0.0473556 0)
(0.583363 0.0488204 0)
(0.569531 0.050317 0)
(0.555273 0.0518431 0)
(0.540582 0.0533963 0)
(0.525448 0.0549735 0)
(0.509867 0.0565713 0)
(0.493831 0.0581859 0)
(0.477336 0.0598129 0)
(0.460379 0.0614474 0)
(0.442958 0.0630841 0)
(0.425072 0.0647171 0)
(0.406724 0.0663401 0)
(0.387915 0.0679462 0)
(0.368652 0.0695282 0)
(0.348942 0.0710784 0)
(0.328794 0.0725887 0)
(0.30822 0.0740509 0)
(0.287236 0.0754565 0)
(0.265857 0.0767968 0)
(0.244104 0.0780633 0)
(0.221999 0.0792474 0)
(0.199566 0.0803407 0)
(0.176831 0.0813354 0)
(0.153825 0.0822239 0)
(0.130579 0.0829994 0)
(0.107126 0.0836557 0)
(0.0835015 0.0841874 0)
(0.0597415 0.0845902 0)
(0.0358841 0.0848606 0)
(0.0119679 0.0849964 0)
(0.9983 0.0157107 0)
(0.9949 0.0157234 0)
(0.991496 0.015749 0)
(0.988084 0.0157875 0)
(0.984663 0.015839 0)
(0.981229 0.0159035 0)
(0.97778 0.0159811 0)
(0.974313 0.0160719 0)
(0.970825 0.0161762 0)
(0.967313 0.0162939 0)
(0.963774 0.0164254 0)
(0.960206 0.0165708 0)
(0.956604 0.0167303 0)
(0.952967 0.0169044 0)
(0.949291 0.0170931 0)
(0.945572 0.0172968 0)
(0.941808 0.0175158 0)
(0.937995 0.0177505 0)
(0.93413 0.0180012 0)
(0.93021 0.0182684 0)
(0.92623 0.0185524 0)
(0.922186 0.0188537 0)
(0.918077 0.0191728 0)
(0.913896 0.0195102 0)
(0.909641 0.0198665 0)
(0.905307 0.0202421 0)
(0.900891 0.0206377 0)
(0.896387 0.021054 0)
(0.89179 0.0214915 0)
(0.887098 0.0219509 0)
(0.882304 0.022433 0)
(0.877404 0.0229386 0)
(0.872392 0.0234683 0)
(0.867264 0.024023 0)
(0.862013 0.0246036 0)
(0.856635 0.025211 0)
(0.851123 0.025846 0)
(0.845471 0.0265096 0)
(0.839673 0.0272028 0)
(0.833722 0.0279265 0)
(0.827612 0.0286819 0)
(0.821335 0.0294699 0)
(0.814885 0.0302917 0)
(0.808254 0.0311483 0)
(0.801435 0.0320408 0)
(0.794419 0.0329704 0)
(0.787198 0.0339382 0)
(0.779764 0.0349453 0)
(0.772109 0.0359929 0)
(0.764222 0.0370821 0)
(0.756095 0.0382139 0)
(0.747719 0.0393895 0)
(0.739084 0.0406098 0)
(0.730179 0.0418759 0)
(0.720995 0.0431886 0)
(0.711522 0.0445486 0)
(0.701748 0.0459567 0)
(0.691663 0.0474135 0)
(0.681256 0.0489194 0)
(0.670517 0.0504746 0)
(0.659433 0.0520792 0)
(0.647995 0.0537329 0)
(0.63619 0.0554354 0)
(0.624008 0.0571859 0)
(0.611438 0.0589832 0)
(0.59847 0.0608261 0)
(0.585093 0.0627127 0)
(0.571297 0.0646408 0)
(0.557072 0.0666076 0)
(0.54241 0.0686098 0)
(0.527303 0.0706437 0)
(0.511744 0.072705 0)
(0.495725 0.0747887 0)
(0.479242 0.0768893 0)
(0.462291 0.0790004 0)
(0.44487 0.0811152 0)
(0.426976 0.0832261 0)
(0.408612 0.085325 0)
(0.38978 0.0874029 0)
(0.370485 0.0894506 0)
(0.350733 0.0914579 0)
(0.330534 0.0934145 0)
(0.309899 0.0953096 0)
(0.288844 0.0971321 0)
(0.267384 0.0988708 0)
(0.24554 0.100514 0)
(0.223333 0.102051 0)
(0.200789 0.103471 0)
(0.177935 0.104763 0)
(0.1548 0.105918 0)
(0.131418 0.106926 0)
(0.107822 0.107779 0)
(0.0840491 0.108471 0)
(0.0601361 0.108994 0)
(0.0361222 0.109346 0)
(0.0120475 0.109523 0)
(0.998308 0.0191747 0)
(0.994922 0.0191903 0)
(0.991532 0.0192216 0)
(0.988135 0.0192684 0)
(0.984728 0.0193312 0)
(0.981309 0.0194098 0)
(0.977875 0.0195043 0)
(0.974423 0.019615 0)
(0.970951 0.019742 0)
(0.967454 0.0198855 0)
(0.963931 0.0200457 0)
(0.960378 0.020223 0)
(0.956793 0.0204175 0)
(0.953173 0.0206296 0)
(0.949513 0.0208597 0)
(0.945812 0.0211079 0)
(0.942065 0.0213749 0)
(0.93827 0.0216609 0)
(0.934424 0.0219665 0)
(0.930522 0.0222921 0)
(0.926561 0.0226383 0)
(0.922538 0.0230056 0)
(0.918449 0.0233946 0)
(0.914289 0.0238058 0)
(0.910056 0.02424 0)
(0.905745 0.0246979 0)
(0.901351 0.02518 0)
(0.89687 0.0256874 0)
(0.892299 0.0262206 0)
(0.887632 0.0267807 0)
(0.882864 0.0273683 0)
(0.877991 0.0279845 0)
(0.873007 0.0286302 0)
(0.867907 0.0293065 0)
(0.862687 0.0300142 0)
(0.857339 0.0307546 0)
(0.851859 0.0315288 0)
(0.84624 0.0323378 0)
(0.840476 0.0331829 0)
(0.83456 0.0340652 0)
(0.828487 0.0349863 0)
(0.822248 0.0359471 0)
(0.815837 0.0369492 0)
(0.809246 0.0379937 0)
(0.802468 0.0390822 0)
(0.795495 0.040216 0)
(0.788318 0.0413964 0)
(0.780929 0.042625 0)
(0.77332 0.043903 0)
(0.765481 0.0452319 0)
(0.757404 0.0466131 0)
(0.749078 0.0480478 0)
(0.740494 0.0495373 0)
(0.731642 0.0510828 0)
(0.722511 0.0526855 0)
(0.713092 0.0543464 0)
(0.703373 0.0560663 0)
(0.693344 0.057846 0)
(0.682993 0.0596861 0)
(0.67231 0.0615868 0)
(0.661282 0.0635484 0)
(0.649899 0.0655707 0)
(0.63815 0.0676531 0)
(0.626022 0.0697949 0)
(0.613505 0.0719947 0)
(0.600588 0.0742511 0)
(0.587259 0.0765618 0)
(0.573509 0.0789242 0)
(0.559327 0.0813349 0)
(0.544704 0.0837902 0)
(0.529631 0.0862854 0)
(0.5141 0.0888154 0)
(0.498104 0.091374 0)
(0.481637 0.0939546 0)
(0.464695 0.0965495 0)
(0.447273 0.0991503 0)
(0.429372 0.101748 0)
(0.410989 0.104332 0)
(0.392128 0.106891 0)
(0.372793 0.109415 0)
(0.35299 0.11189 0)
(0.332727 0.114305 0)
(0.312017 0.116644 0)
(0.290873 0.118895 0)
(0.269311 0.121044 0)
(0.247353 0.123076 0)
(0.225019 0.124978 0)
(0.202335 0.126735 0)
(0.17933 0.128335 0)
(0.156034 0.129765 0)
(0.13248 0.131014 0)
(0.108704 0.132071 0)
(0.0847425 0.132929 0)
(0.0606357 0.133578 0)
(0.0364237 0.134014 0)
(0.0121483 0.134233 0)
(0.998316 0.0226223 0)
(0.994948 0.0226407 0)
(0.991575 0.0226776 0)
(0.988196 0.0227329 0)
(0.984807 0.0228067 0)
(0.981406 0.0228993 0)
(0.97799 0.0230107 0)
(0.974556 0.0231411 0)
(0.971101 0.0232906 0)
(0.967623 0.0234597 0)
(0.964119 0.0236484 0)
(0.960585 0.0238572 0)
(0.957019 0.0240864 0)
(0.953418 0.0243362 0)
(0.949779 0.0246072 0)
(0.946098 0.0248996 0)
(0.942373 0.025214 0)
(0.9386 0.025551 0)
(0.934775 0.0259109 0)
(0.930896 0.0262944 0)
(0.926958 0.0267022 0)
(0.922959 0.0271348 0)
(0.918894 0.027593 0)
(0.91476 0.0280774 0)
(0.910552 0.0285889 0)
(0.906267 0.0291282 0)
(0.901901 0.0296962 0)
(0.897449 0.0302938 0)
(0.892907 0.0309219 0)
(0.88827 0.0315816 0)
(0.883534 0.0322738 0)
(0.878693 0.0329997 0)
(0.873742 0.0337604 0)
(0.868677 0.034557 0)
(0.863492 0.0353908 0)
(0.858182 0.0362631 0)
(0.85274 0.0371751 0)
(0.84716 0.0381283 0)
(0.841437 0.039124 0)
(0.835564 0.0401638 0)
(0.829534 0.041249 0)
(0.82334 0.0423813 0)
(0.816975 0.0435623 0)
(0.810433 0.0447934 0)
(0.803704 0.0460764 0)
(0.796782 0.0474129 0)
(0.789658 0.0488045 0)
(0.782324 0.050253 0)
(0.774771 0.0517601 0)
(0.76699 0.0533273 0)
(0.758971 0.0549564 0)
(0.750706 0.0566488 0)
(0.742183 0.0584063 0)
(0.733395 0.0602302 0)
(0.724328 0.0621218 0)
(0.714975 0.0640826 0)
(0.705322 0.0661135 0)
(0.69536 0.0682155 0)
(0.685077 0.0703894 0)
(0.674461 0.0726356 0)
(0.663502 0.0749544 0)
(0.652187 0.0773456 0)
(0.640504 0.0798089 0)
(0.628442 0.0823432 0)
(0.615989 0.0849474 0)
(0.603134 0.0876195 0)
(0.589865 0.090357 0)
(0.576171 0.0931571 0)
(0.562042 0.0960159 0)
(0.547466 0.0989289 0)
(0.532436 0.101891 0)
(0.516941 0.104896 0)
(0.500974 0.107936 0)
(0.484528 0.111005 0)
(0.467598 0.114093 0)
(0.450179 0.117189 0)
(0.432268 0.120283 0)
(0.413865 0.123364 0)
(0.394972 0.126417 0)
(0.37559 0.12943 0)
(0.355726 0.132387 0)
(0.335389 0.135272 0)
(0.314588 0.138071 0)
(0.293337 0.140765 0)
(0.271654 0.143339 0)
(0.249557 0.145774 0)
(0.22707 0.148054 0)
(0.204218 0.150163 0)
(0.181029 0.152083 0)
(0.157537 0.153801 0)
(0.133774 0.155302 0)
(0.109778 0.156573 0)
(0.0855879 0.157603 0)
(0.0612449 0.158384 0)
(0.0367914 0.158909 0)
(0.0122713 0.159173 0)
(0.998327 0.0260508 0)
(0.994978 0.0260719 0)
(0.991626 0.0261143 0)
(0.988267 0.0261779 0)
(0.984898 0.0262628 0)
(0.981518 0.0263691 0)
(0.978122 0.0264972 0)
(0.974709 0.026647 0)
(0.971276 0.026819 0)
(0.96782 0.0270133 0)
(0.964337 0.0272302 0)
(0.960826 0.0274702 0)
(0.957282 0.0277336 0)
(0.953704 0.0280208 0)
(0.950088 0.0283322 0)
(0.946431 0.0286683 0)
(0.94273 0.0290297 0)
(0.938982 0.0294169 0)
(0.935183 0.0298307 0)
(0.93133 0.0302715 0)
(0.92742 0.0307402 0)
(0.923448 0.0312374 0)
(0.919411 0.031764 0)
(0.915306 0.0323208 0)
(0.911129 0.0329086 0)
(0.906875 0.0335285 0)
(0.902541 0.0341814 0)
(0.898122 0.0348683 0)
(0.893614 0.0355903 0)
(0.889012 0.0363485 0)
(0.884312 0.0371442 0)
(0.879509 0.0379786 0)
(0.874597 0.038853 0)
(0.869573 0.0397688 0)
(0.864429 0.0407273 0)
(0.859161 0.0417301 0)
(0.853764 0.0427785 0)
(0.84823 0.0438744 0)
(0.842555 0.0450193 0)
(0.83673 0.0462149 0)
(0.830751 0.0474628 0)
(0.82461 0.0487649 0)
(0.8183 0.050123 0)
(0.811814 0.051539 0)
(0.805143 0.0530147 0)
(0.798281 0.0545522 0)
(0.791218 0.0561533 0)
(0.783948 0.05782 0)
(0.77646 0.0595543 0)
(0.768746 0.0613582 0)
(0.760796 0.0632335 0)
(0.752601 0.0651822 0)
(0.744151 0.067206 0)
(0.735436 0.0693068 0)
(0.726446 0.0714861 0)
(0.717169 0.0737456 0)
(0.707594 0.0760865 0)
(0.697711 0.0785101 0)
(0.687507 0.0810173 0)
(0.676972 0.0836087 0)
(0.666092 0.0862848 0)
(0.654857 0.0890455 0)
(0.643254 0.0918905 0)
(0.63127 0.0948188 0)
(0.618893 0.0978291 0)
(0.606112 0.100919 0)
(0.592914 0.104087 0)
(0.579288 0.107329 0)
(0.565221 0.11064 0)
(0.550704 0.114016 0)
(0.535725 0.117452 0)
(0.520274 0.120939 0)
(0.504343 0.12447 0)
(0.487924 0.128036 0)
(0.47101 0.131626 0)
(0.453596 0.13523 0)
(0.435678 0.138834 0)
(0.417254 0.142424 0)
(0.398323 0.145986 0)
(0.37889 0.149502 0)
(0.358957 0.152957 0)
(0.338533 0.156331 0)
(0.317627 0.159606 0)
(0.296253 0.162762 0)
(0.274427 0.165778 0)
(0.252169 0.168634 0)
(0.229501 0.17131 0)
(0.20645 0.173786 0)
(0.183046 0.176043 0)
(0.159321 0.178063 0)
(0.135311 0.179829 0)
(0.111054 0.181325 0)
(0.0865928 0.182538 0)
(0.0619693 0.183458 0)
(0.0372287 0.184076 0)
(0.0124175 0.184387 0)
(0.998338 0.0294574 0)
(0.995013 0.0294811 0)
(0.991684 0.0295289 0)
(0.988348 0.0296006 0)
(0.985002 0.0296964 0)
(0.981645 0.0298165 0)
(0.978273 0.0299609 0)
(0.974884 0.03013 0)
(0.971475 0.030324 0)
(0.968043 0.0305432 0)
(0.964585 0.0307881 0)
(0.961099 0.0310589 0)
(0.957582 0.031356 0)
(0.95403 0.0316801 0)
(0.95044 0.0320314 0)
(0.946811 0.0324106 0)
(0.943137 0.0328184 0)
(0.939418 0.0332554 0)
(0.935648 0.0337222 0)
(0.931825 0.0342196 0)
(0.927945 0.0347484 0)
(0.924004 0.0353094 0)
(0.92 0.0359036 0)
(0.915929 0.0365318 0)
(0.911786 0.0371951 0)
(0.907567 0.0378945 0)
(0.90327 0.0386311 0)
(0.898888 0.0394062 0)
(0.894419 0.0402208 0)
(0.889857 0.0410764 0)
(0.885198 0.0419743 0)
(0.880438 0.0429158 0)
(0.875571 0.0439025 0)
(0.870592 0.0449359 0)
(0.865495 0.0460176 0)
(0.860277 0.0471493 0)
(0.85493 0.0483327 0)
(0.849449 0.0495695 0)
(0.843827 0.0508617 0)
(0.838059 0.0522113 0)
(0.832138 0.05362 0)
(0.826057 0.05509 0)
(0.819809 0.0566233 0)
(0.813386 0.0582222 0)
(0.806782 0.0598887 0)
(0.799988 0.0616251 0)
(0.792996 0.0634336 0)
(0.785798 0.0653165 0)
(0.778384 0.0672761 0)
(0.770747 0.0693145 0)
(0.762876 0.0714341 0)
(0.754763 0.0736371 0)
(0.746396 0.0759255 0)
(0.737766 0.0783014 0)
(0.728862 0.0807669 0)
(0.719673 0.0833236 0)
(0.710188 0.0859734 0)
(0.700396 0.0887175 0)
(0.690284 0.0915573 0)
(0.679841 0.0944936 0)
(0.669054 0.0975269 0)
(0.657912 0.100658 0)
(0.6464 0.103885 0)
(0.634507 0.107209 0)
(0.62222 0.110627 0)
(0.609525 0.114139 0)
(0.596411 0.11774 0)
(0.582864 0.121428 0)
(0.568872 0.125197 0)
(0.554423 0.129043 0)
(0.539505 0.132958 0)
(0.524108 0.136936 0)
(0.508222 0.140967 0)
(0.491837 0.145041 0)
(0.474945 0.149146 0)
(0.457539 0.15327 0)
(0.439615 0.157398 0)
(0.42117 0.161514 0)
(0.402201 0.165601 0)
(0.38271 0.16964 0)
(0.362701 0.173611 0)
(0.342179 0.177494 0)
(0.321155 0.181266 0)
(0.29964 0.184903 0)
(0.277651 0.188383 0)
(0.255207 0.191682 0)
(0.232332 0.194775 0)
(0.209052 0.197639 0)
(0.185397 0.200251 0)
(0.161402 0.202591 0)
(0.137105 0.204637 0)
(0.112545 0.206371 0)
(0.0877667 0.207779 0)
(0.0628156 0.208847 0)
(0.0377397 0.209564 0)
(0.0125883 0.209924 0)
(0.998351 0.0328389 0)
(0.995051 0.0328655 0)
(0.991748 0.0329185 0)
(0.988438 0.0329983 0)
(0.985119 0.0331048 0)
(0.981788 0.0332383 0)
(0.978443 0.0333989 0)
(0.97508 0.033587 0)
(0.971698 0.0338028 0)
(0.968294 0.0340466 0)
(0.964864 0.0343189 0)
(0.961406 0.03462 0)
(0.957917 0.0349504 0)
(0.954394 0.0353108 0)
(0.950835 0.0357015 0)
(0.947235 0.0361232 0)
(0.943593 0.0365767 0)
(0.939905 0.0370627 0)
(0.936168 0.0375818 0)
(0.932378 0.038135 0)
(0.928533 0.038723 0)
(0.924628 0.0393469 0)
(0.92066 0.0400076 0)
(0.916625 0.0407062 0)
(0.912521 0.0414438 0)
(0.908342 0.0422216 0)
(0.904085 0.0430408 0)
(0.899746 0.0439027 0)
(0.89532 0.0448087 0)
(0.890803 0.0457602 0)
(0.886191 0.0467587 0)
(0.881478 0.0478059 0)
(0.87666 0.0489033 0)
(0.871733 0.0500527 0)
(0.86669 0.0512558 0)
(0.861526 0.0525146 0)
(0.856235 0.053831 0)
(0.850813 0.0552069 0)
(0.845252 0.0566444 0)
(0.839547 0.0581458 0)
(0.833691 0.0597133 0)
(0.827677 0.061349 0)
(0.821499 0.0630553 0)
(0.815148 0.0648348 0)
(0.808618 0.0666898 0)
(0.801901 0.0686228 0)
(0.794988 0.0706364 0)
(0.787872 0.0727331 0)
(0.780543 0.0749155 0)
(0.772992 0.0771863 0)
(0.76521 0.0795478 0)
(0.757188 0.0820028 0)
(0.748915 0.0845536 0)
(0.740381 0.0872027 0)
(0.731575 0.0899524 0)
(0.722486 0.0928047 0)
(0.713103 0.0957617 0)
(0.703414 0.0988252 0)
(0.693406 0.101997 0)
(0.683069 0.105277 0)
(0.672388 0.108668 0)
(0.661351 0.112168 0)
(0.649944 0.115779 0)
(0.638156 0.1195 0)
(0.625971 0.123329 0)
(0.613376 0.127264 0)
(0.600358 0.131303 0)
(0.586904 0.135441 0)
(0.572999 0.139674 0)
(0.55863 0.143996 0)
(0.543786 0.1484 0)
(0.528453 0.152878 0)
(0.51262 0.157419 0)
(0.496277 0.162013 0)
(0.479414 0.166647 0)
(0.462023 0.171306 0)
(0.444097 0.175975 0)
(0.425631 0.180634 0)
(0.406622 0.185266 0)
(0.387071 0.189848 0)
(0.366978 0.194358 0)
(0.34635 0.198773 0)
(0.325194 0.203065 0)
(0.303522 0.207209 0)
(0.281349 0.211178 0)
(0.258696 0.214943 0)
(0.235585 0.218478 0)
(0.212043 0.221754 0)
(0.188103 0.224744 0)
(0.1638 0.227424 0)
(0.139172 0.229769 0)
(0.114264 0.231759 0)
(0.0891206 0.233375 0)
(0.0637922 0.2346 0)
(0.0383295 0.235424 0)
(0.0127856 0.235838 0)
(0.998365 0.0361927 0)
(0.995094 0.036222 0)
(0.991819 0.0362803 0)
(0.988538 0.036368 0)
(0.985247 0.036485 0)
(0.981946 0.0366318 0)
(0.97863 0.0368084 0)
(0.975297 0.0370151 0)
(0.971945 0.0372523 0)
(0.96857 0.0375203 0)
(0.965171 0.0378195 0)
(0.961744 0.0381505 0)
(0.958287 0.0385137 0)
(0.954797 0.0389097 0)
(0.95127 0.0393392 0)
(0.947705 0.0398028 0)
(0.944097 0.0403012 0)
(0.940444 0.0408353 0)
(0.936743 0.0414059 0)
(0.93299 0.0420138 0)
(0.929182 0.0426601 0)
(0.925316 0.0433458 0)
(0.921389 0.0440721 0)
(0.917395 0.0448399 0)
(0.913333 0.0456507 0)
(0.909198 0.0465055 0)
(0.904986 0.047406 0)
(0.900694 0.0483533 0)
(0.896316 0.0493491 0)
(0.891849 0.050395 0)
(0.887288 0.0514925 0)
(0.882628 0.0526436 0)
(0.877865 0.0538499 0)
(0.872994 0.0551134 0)
(0.86801 0.056436 0)
(0.862907 0.0578199 0)
(0.857679 0.0592671 0)
(0.852322 0.0607799 0)
(0.846829 0.0623606 0)
(0.841193 0.0640116 0)
(0.835409 0.0657353 0)
(0.82947 0.0675343 0)
(0.823369 0.0694112 0)
(0.817098 0.0713686 0)
(0.81065 0.0734095 0)
(0.804018 0.0755365 0)
(0.797194 0.0777524 0)
(0.790168 0.0800603 0)
(0.782932 0.0824629 0)
(0.775478 0.0849632 0)
(0.767795 0.0875641 0)
(0.759875 0.0902686 0)
(0.751706 0.0930793 0)
(0.743279 0.0959991 0)
(0.734583 0.0990307 0)
(0.725606 0.102177 0)
(0.716337 0.105439 0)
(0.706763 0.10882 0)
(0.696873 0.112322 0)
(0.686654 0.115946 0)
(0.676092 0.119693 0)
(0.665175 0.123564 0)
(0.653888 0.12756 0)
(0.642217 0.131678 0)
(0.630149 0.13592 0)
(0.617669 0.140282 0)
(0.604761 0.144762 0)
(0.591413 0.149355 0)
(0.577609 0.154058 0)
(0.563335 0.158864 0)
(0.548576 0.163765 0)
(0.533319 0.168753 0)
(0.517552 0.173817 0)
(0.501261 0.178944 0)
(0.484435 0.184122 0)
(0.467065 0.189333 0)
(0.449142 0.19456 0)
(0.430658 0.199784 0)
(0.411611 0.204982 0)
(0.391996 0.210131 0)
(0.371815 0.215206 0)
(0.351071 0.220178 0)
(0.329771 0.225019 0)
(0.307926 0.229698 0)
(0.28555 0.234185 0)
(0.262662 0.238446 0)
(0.239287 0.242451 0)
(0.215451 0.246166 0)
(0.191188 0.249561 0)
(0.166534 0.252606 0)
(0.141532 0.255273 0)
(0.116227 0.257537 0)
(0.0906682 0.259377 0)
(0.0649088 0.260773 0)
(0.039004 0.261712 0)
(0.0130111 0.262184 0)
(0.998381 0.0395162 0)
(0.995141 0.039548 0)
(0.991897 0.0396115 0)
(0.988647 0.039707 0)
(0.985388 0.0398345 0)
(0.982118 0.0399942 0)
(0.978834 0.0401864 0)
(0.975534 0.0404114 0)
(0.972214 0.0406696 0)
(0.968873 0.0409614 0)
(0.965507 0.0412871 0)
(0.962115 0.0416474 0)
(0.958692 0.0420428 0)
(0.955237 0.0424738 0)
(0.951747 0.0429413 0)
(0.948218 0.043446 0)
(0.944648 0.0439885 0)
(0.941033 0.0445699 0)
(0.937372 0.0451909 0)
(0.933659 0.0458527 0)
(0.929893 0.0465562 0)
(0.92607 0.0473026 0)
(0.922186 0.0480931 0)
(0.918238 0.048929 0)
(0.914222 0.0498115 0)
(0.910135 0.050742 0)
(0.905972 0.0517221 0)
(0.90173 0.0527533 0)
(0.897405 0.0538372 0)
(0.892992 0.0549758 0)
(0.888487 0.0561706 0)
(0.883886 0.0574236 0)
(0.879183 0.0587369 0)
(0.874374 0.0601124 0)
(0.869454 0.0615524 0)
(0.864417 0.0630591 0)
(0.859259 0.0646349 0)
(0.853972 0.0662821 0)
(0.848553 0.0680034 0)
(0.842994 0.0698014 0)
(0.837289 0.0716788 0)
(0.831432 0.0736383 0)
(0.825415 0.0756829 0)
(0.819232 0.0778156 0)
(0.812875 0.0800394 0)
(0.806336 0.0823573 0)
(0.799608 0.0847727 0)
(0.792682 0.0872886 0)
(0.78555 0.0899083 0)
(0.778202 0.0926352 0)
(0.770629 0.0954725 0)
(0.76282 0.0984234 0)
(0.754767 0.101491 0)
(0.746459 0.104679 0)
(0.737884 0.10799 0)
(0.729031 0.111427 0)
(0.719888 0.114993 0)
(0.710443 0.11869 0)
(0.700684 0.12252 0)
(0.690596 0.126486 0)
(0.680168 0.13059 0)
(0.669384 0.134831 0)
(0.658231 0.139211 0)
(0.646694 0.143729 0)
(0.634757 0.148385 0)
(0.622406 0.153177 0)
(0.609625 0.158102 0)
(0.596398 0.163156 0)
(0.58271 0.168335 0)
(0.568544 0.173632 0)
(0.553885 0.17904 0)
(0.538718 0.184549 0)
(0.523029 0.190148 0)
(0.506802 0.195823 0)
(0.490024 0.201561 0)
(0.472684 0.207343 0)
(0.45477 0.21315 0)
(0.436275 0.21896 0)
(0.41719 0.22475 0)
(0.397512 0.230493 0)
(0.377238 0.23616 0)
(0.356372 0.24172 0)
(0.334917 0.247141 0)
(0.312883 0.252388 0)
(0.290284 0.257426 0)
(0.267138 0.262217 0)
(0.243469 0.266725 0)
(0.219305 0.270912 0)
(0.19468 0.274743 0)
(0.169633 0.278182 0)
(0.144208 0.281197 0)
(0.118455 0.283759 0)
(0.0924251 0.285841 0)
(0.0661769 0.287423 0)
(0.0397702 0.288487 0)
(0.0132675 0.289021 0)
(0.998398 0.0428065 0)
(0.995191 0.0428409 0)
(0.991981 0.0429095 0)
(0.988765 0.0430125 0)
(0.985541 0.0431503 0)
(0.982305 0.0433227 0)
(0.979056 0.0435303 0)
(0.97579 0.0437733 0)
(0.972506 0.044052 0)
(0.969201 0.044367 0)
(0.965872 0.0447187 0)
(0.962516 0.0451077 0)
(0.959131 0.0455346 0)
(0.955714 0.046 0)
(0.952263 0.0465047 0)
(0.948774 0.0470496 0)
(0.945245 0.0476354 0)
(0.941672 0.0482631 0)
(0.938053 0.0489336 0)
(0.934384 0.0496481 0)
(0.930663 0.0504076 0)
(0.926886 0.0512135 0)
(0.92305 0.0520669 0)
(0.91915 0.0529693 0)
(0.915185 0.0539221 0)
(0.91115 0.0549267 0)
(0.90704 0.0559849 0)
(0.902854 0.0570983 0)
(0.898586 0.0582686 0)
(0.894232 0.0594978 0)
(0.889787 0.0607879 0)
(0.885249 0.0621409 0)
(0.880611 0.0635589 0)
(0.87587 0.0650442 0)
(0.871019 0.0665992 0)
(0.866055 0.0682263 0)
(0.860971 0.069928 0)
(0.855762 0.0717071 0)
(0.850423 0.0735663 0)
(0.844947 0.0755084 0)
(0.839328 0.0775365 0)
(0.833559 0.0796536 0)
(0.827635 0.0818629 0)
(0.821547 0.0841676 0)
(0.815289 0.086571 0)
(0.808852 0.0890767 0)
(0.80223 0.091688 0)
(0.795413 0.0944086 0)
(0.788393 0.0972421 0)
(0.78116 0.100192 0)
(0.773707 0.103262 0)
(0.766022 0.106456 0)
(0.758095 0.109778 0)
(0.749916 0.11323 0)
(0.741474 0.116818 0)
(0.732758 0.120543 0)
(0.723754 0.124409 0)
(0.714451 0.12842 0)
(0.704836 0.132577 0)
(0.694895 0.136884 0)
(0.684614 0.141342 0)
(0.673979 0.145953 0)
(0.662975 0.150717 0)
(0.651587 0.155636 0)
(0.639798 0.160708 0)
(0.627592 0.165932 0)
(0.614953 0.171307 0)
(0.601864 0.176827 0)
(0.588308 0.182489 0)
(0.574267 0.188286 0)
(0.559725 0.19421 0)
(0.544663 0.200251 0)
(0.529066 0.206398 0)
(0.512917 0.212638 0)
(0.4962 0.218953 0)
(0.478901 0.225326 0)
(0.461007 0.231736 0)
(0.442506 0.238158 0)
(0.423389 0.244567 0)
(0.403648 0.250933 0)
(0.383281 0.257225 0)
(0.362286 0.263408 0)
(0.340666 0.269445 0)
(0.318429 0.275297 0)
(0.295588 0.280925 0)
(0.272159 0.286284 0)
(0.248167 0.291334 0)
(0.22364 0.296031 0)
(0.198612 0.300333 0)
(0.173126 0.3042 0)
(0.147228 0.307594 0)
(0.12097 0.31048 0)
(0.09441 0.312828 0)
(0.0676104 0.314612 0)
(0.0406367 0.315813 0)
(0.0135574 0.316417 0)
(0.998416 0.0460612 0)
(0.995246 0.0460979 0)
(0.992072 0.0461716 0)
(0.988893 0.046282 0)
(0.985705 0.0464297 0)
(0.982506 0.0466146 0)
(0.979294 0.0468371 0)
(0.976066 0.0470977 0)
(0.97282 0.0473966 0)
(0.969554 0.0477343 0)
(0.966264 0.0481115 0)
(0.962948 0.0485285 0)
(0.959603 0.0489862 0)
(0.956228 0.0494852 0)
(0.952818 0.0500264 0)
(0.949372 0.0506105 0)
(0.945887 0.0512385 0)
(0.942359 0.0519115 0)
(0.938786 0.0526304 0)
(0.935165 0.0533964 0)
(0.931492 0.0542108 0)
(0.927764 0.0550747 0)
(0.923979 0.0559897 0)
(0.920132 0.0569571 0)
(0.916221 0.0579785 0)
(0.912241 0.0590556 0)
(0.90819 0.0601901 0)
(0.904063 0.0613838 0)
(0.899856 0.0626386 0)
(0.895565 0.0639564 0)
(0.891186 0.0653396 0)
(0.886716 0.0667903 0)
(0.882148 0.0683107 0)
(0.877479 0.0699033 0)
(0.872703 0.0715707 0)